ITEM: TIMESTEP
2150000
ITEM: NUMBER OF ATOMS
169
ITEM: BOX BOUNDS pp pp pp
0.005185 11.2261
-0.200873 9.51721
-2.11133 25.4128
ITEM: ATOMS id type xs ys zs
  3   1             0.124538              0.27067            0.0767082
  4   1             0.249538              0.02067            0.0767082
  6   1             0.374538              0.27067            0.0767082
  7   1             0.499538              0.02067            0.0767082
 18   1             0.249538             0.354003             0.160002
 19   1             0.124538                0.104             0.160002
 21   1             0.499538             0.354003             0.160002
 22   1             0.374538                0.104             0.160002
 33   1             0.373421             0.433709             0.247518
 35   1             0.499992             0.183441             0.239611
 38   1             0.248397             0.185518             0.241246
 39   1             0.125702             0.436444             0.241909
 44   1          4.05493e-05             0.186315             0.242041
  1   1             0.999538              0.02067            0.0767082
  9   1             0.624538              0.27067            0.0767082
 10   1             0.749538              0.02067            0.0767082
 11   1             0.874538              0.27067            0.0767082
 24   1             0.749538             0.354003             0.160002
 25   1             0.624538                0.104             0.160002
 26   1             0.874538                0.104             0.160002
 28   1             0.999538             0.354003             0.160002
 34   1             0.625964             0.434774             0.243076
 40   1             0.751436             0.184651             0.241591
 42   1             0.877096              0.43706             0.241516
  8   1             0.749538              0.52067            0.0767082
 12   1             0.999538              0.52067            0.0767082
 14   1             0.624538              0.77067            0.0767082
 15   1             0.874538              0.77067            0.0767082
 20   1             0.624538              0.60398             0.160002
 23   1             0.874538              0.60398             0.160002
 30   1             0.749538             0.854003             0.160002
 31   1             0.999538             0.854003             0.160002
 41   1             0.750544             0.688099             0.241394
 45   1              0.62517             0.935791             0.242434
 46   1             0.875364             0.936677             0.242113
  2   1             0.249538              0.52067            0.0767082
  5   1             0.499538              0.52067            0.0767082
 13   1             0.374538              0.77067            0.0767082
 16   1             0.124754             0.770486             0.076815
 17   1             0.374538              0.60398             0.160002
 27   1             0.124538              0.60399             0.160002
 29   1             0.499538             0.854003             0.160002
 32   1             0.249538             0.854003             0.160002
 36   1             0.250102             0.688301             0.241198
 37   1             0.498651             0.688875             0.240454
 43   1          0.000462084             0.687465             0.241967
 47   1             0.124908             0.936352             0.242214
 48   1             0.374474             0.936674             0.242909
 49   2             0.497791             0.498284             0.340919
 51   2             0.358277             0.295386             0.348193
 50   3             0.377883             0.436907             0.324292
 53   6             0.284253             0.518661              0.34185
 54   6             0.463357             0.211341             0.349001
 52   6             0.600567             0.424212             0.322274
157   8             0.551985            0.0294392             0.796308
139   8             0.733574             0.205311             0.827456
 88   8             0.858919             0.418199             0.881691
 73   8             0.507544             0.345939             0.978893
133   8             0.642698             0.442112             0.780368
 97   8            0.0190658             0.526986             0.437186
145   8             0.371454             0.777856             0.438351
 55   8             0.351565             0.665164             0.777548
 67   8             0.494667             0.993818             0.908131
127   8           0.00700853             0.706959              0.82916
 76   8             0.209241             0.906403             0.982022
154   8             0.822575             0.727838             0.965909
118   8              0.71974             0.967962             0.943808
148   8            0.0642573           0.00298626             0.865112
 79   8             0.184055             0.331316             0.905415
 82   8             0.076082             0.267741             0.807926
142   8             0.423876             0.371571             0.831128
121   8             0.465603              0.15471             0.524796
 94   8             0.181652               0.4885              0.53532
109   8             0.213545             0.148893              0.73528
103   8             0.464604              0.37045             0.585297
 58   8             0.175131             0.235119             0.634133
160   8             0.191143             0.808102             0.561272
 64   8              0.10771             0.597339             0.626214
100   8             0.491286             0.810648             0.690428
 85   8             0.419651             0.579739             0.524505
106   8              0.46094             0.873302             0.528362
130   8             0.347512             0.534088              0.69057
124   8             0.213407             0.292651             0.475736
112   8             0.216915            0.0144731             0.488689
 70   8             0.640949            0.0622002             0.594483
151   8             0.720221             0.311356             0.580608
115   8              0.91228             0.277758              0.50915
 61   8             0.816064             0.526857             0.384947
 91   8             0.721341             0.840243             0.551651
136   8              0.97106             0.720566             0.714073
156   9              0.80233             0.700157          -0.00175193
 99   9             0.983317             0.464188             0.459668
 63   9              0.75252             0.464213             0.391956
140   9             0.698361             0.287255             0.814561
 74   9             0.557694             0.285902             0.960398
 90   9             0.900727             0.435067             0.911414
 68   9             0.508454            0.0489005             0.879853
141   9             0.806248             0.235804             0.842144
 89   9             0.919973             0.415246             0.857425
158   9             0.620668            0.0861849             0.791411
120   9             0.790397           0.00896644             0.930767
146   9              0.42514             0.828154             0.458723
147   9             0.316607             0.845606             0.426636
 77   9             0.208281              0.95068            0.0130847
 69   9             0.571103              0.98695              0.92338
155   9             0.857142             0.647489             0.951556
134   9             0.567068             0.487538             0.779133
119   9             0.745614             0.880995              0.95627
159   9             0.582499             0.947594             0.811127
128   9             0.936825             0.660931             0.817905
149   9            0.0832787             0.906974              0.86477
 57   9             0.323817             0.739355              0.79743
 56   9             0.320489             0.584183              0.79276
 78   9             0.261305             0.961914             0.962664
129   9          -0.00608835             0.801743             0.821352
144   9             0.447132             0.277146             0.833962
143   9             0.495002             0.422341             0.838007
 83   9            0.0626003             0.174819             0.818066
 84   9             0.115539             0.259417             0.777233
 81   9             0.218198             0.420226             0.899914
 80   9             0.154464             0.303664             0.874293
 75   9             0.430306             0.335837             0.964568
150   9            0.0852249            0.0329449             0.897119
 59   9             0.164838             0.312275             0.612927
 60   9             0.222783              0.26969             0.660268
123   9             0.429118             0.215577             0.547738
110   9             0.194352             0.141119             0.701507
104   9             0.473263             0.456501             0.568748
111   9             0.280138            0.0886206             0.739699
 87   9             0.382364             0.663413             0.514231
161   9             0.155554             0.771744              0.53239
162   9             0.224445             0.894376             0.551411
131   9             0.355217             0.584744              0.72023
 86   9             0.366395             0.508726             0.514044
 66   9             0.160093             0.535413             0.642807
 96   9             0.111525             0.486161             0.555104
102   9             0.447539             0.799066             0.720002
 65   9              0.15896              0.64997             0.605536
 95   9             0.167649             0.561854             0.512825
132   9             0.406133             0.573366             0.669453
107   9             0.487512             0.957189             0.543019
137   9            0.0295002             0.699428             0.738283
138   9           0.00558002               0.6891             0.684275
114   9             0.293935             0.972988             0.491686
125   9             0.168427             0.319094               0.4477
126   9             0.205491             0.368692             0.497603
122   9              0.42881             0.177139             0.494436
113   9             0.228371             0.107503             0.499115
117   9             0.836913             0.243549             0.520082
153   9             0.793292             0.330384             0.597249
152   9             0.707177             0.215063             0.585632
 72   9             0.586596             0.103736             0.572047
116   9             0.968563             0.209544             0.519292
105   9             0.544582             0.340898             0.591418
135   9             0.658198             0.415794             0.747457
 98   9             0.958907             0.542291             0.413129
 62   9             0.818309              0.53148             0.350221
 92   9              0.73731             0.744875             0.557416
 93   9             0.789281             0.872322             0.533931
 71   9             0.669512             0.982003             0.577989
108   9             0.519312             0.806543             0.537718
101   9              0.57294              0.79964             0.699712
167  10             0.506516             0.606281             0.329317
163  10             0.502269             0.492112             0.380992
168  10             0.334218             0.315208             0.386447
166  10             0.283191             0.241113             0.330534
164  11             0.580113             0.325601             0.329577
165  11             0.282502             0.605653             0.323076
169  11             0.459907             0.148354             0.320514