ITEM: TIMESTEP
3364900
ITEM: NUMBER OF ATOMS
113
ITEM: BOX BOUNDS xy xz yz pp pp pp
1.40265 14.0265 4.20795
-0.404909 6.88347 0
-8.33008 30.1941 0
ITEM: ATOMS id type xs ys zs
1 1 0.805555 0.0555554 0.21623
2 1 0.805555 0.722222 0.21623
3 1 0.805555 0.388889 0.21623
4 1 0.138889 0.0555554 0.21623
5 1 0.138889 0.722222 0.21623
6 1 0.138889 0.388889 0.21623
7 1 0.472222 0.0555554 0.21623
8 1 0.472222 0.722222 0.21623
9 1 0.472222 0.388889 0.21623
10 1 0.916666 0.833334 0.275687
11 1 0.916666 0.5 0.275687
12 1 0.916666 0.166666 0.275687
13 1 0.25 0.833334 0.275687
14 1 0.25 0.5 0.275687
15 1 0.25 0.166666 0.275687
16 1 0.583333 0.833334 0.275687
17 1 0.583333 0.5 0.275687
18 1 0.583333 0.166666 0.275687
19 1 0.0277775 0.944445 0.335143
20 1 0.0277774 0.611111 0.335143
21 1 0.0277775 0.277778 0.335143
22 1 0.361111 0.944445 0.335143
23 1 0.361111 0.611111 0.335143
24 1 0.361111 0.277778 0.335143
25 1 0.694444 0.944445 0.335143
26 1 0.694444 0.611111 0.335143
27 1 0.694444 0.277778 0.335143
28 3 0.531454 0.688603 0.414396
29 2 0.36843 0.657256 0.410724
30 3 0.39764 0.468719 0.420675
31 5 0.687078 0.566554 0.393387
32 4 0.20982 0.790936 0.42619
33 5 0.575302 0.324671 0.410556
34 6 0.325205 0.999941 0.637265
35 6 0.962363 0.460948 0.472411
36 6 0.364685 0.269614 0.51977
37 6 0.0311565 0.435127 0.593785
38 6 0.182462 0.120212 0.440795
39 6 0.680267 0.0588827 0.46278
40 6 0.0862723 0.623481 0.52326
41 6 0.727074 0.820813 0.560454
42 6 0.253252 0.365479 0.649473
43 6 0.904681 0.687916 0.418906
44 6 0.158676 0.783766 0.588148
45 6 0.0280497 0.421819 0.708676
46 6 0.71725 0.132393 0.581346
47 6 0.62973 0.711907 0.628023
48 6 0.645008 0.617912 0.514776
49 6 0.414445 0.969052 0.493913
50 6 0.620469 0.203503 0.734934
51 6 0.899183 0.0407132 0.514574
52 6 0.00190438 0.992873 0.651549
53 6 0.477818 0.500062 0.564257
54 6 0.100657 0.153698 0.547657
55 6 0.718874 0.960534 0.680741
56 6 0.73518 0.356629 0.639617
57 6 0.443423 0.509591 0.691159
58 7 0.39278 0.274791 0.543655
59 7 0.858772 0.463466 0.485452
60 7 0.631915 0.186805 0.448824
61 7 0.255635 0.402471 0.518864
62 7 0.0359829 0.462748 0.492396
63 7 0.668365 0.962731 0.451534
64 7 0.291309 0.13142 0.64478
65 7 0.226762 0.982099 0.64594
66 7 0.0243068 0.346902 0.576327
67 7 0.0484664 0.517667 0.57832
68 7 0.10526 0.250662 0.441651
69 7 0.254828 0.0736584 0.462803
70 7 0.959572 0.715998 0.531067
71 7 0.948526 0.606496 0.439622
72 7 0.108712 0.853959 0.608726
73 7 0.112369 0.709365 0.511753
74 7 0.832229 0.652763 0.404818
75 7 0.106593 0.874892 0.570088
76 7 0.732151 0.749045 0.580638
77 7 0.167362 0.371892 0.66698
78 7 0.157266 0.439374 0.631566
79 7 0.693618 0.940884 0.569665
80 7 0.990889 0.520997 0.726592
81 7 0.944115 0.380511 0.708211
82 7 0.634842 0.526899 0.530201
83 7 0.502756 0.811415 0.632902
84 7 0.852597 0.025474 0.492076
85 7 0.672815 0.698724 0.53058
86 7 0.697606 0.722566 0.647311
87 7 0.795625 0.0889321 0.530837
88 7 0.769757 0.111325 0.605099
89 7 0.65015 0.271542 0.577504
90 7 0.52075 0.851916 0.500484
91 7 0.425765 0.0654132 0.504676
92 7 0.719955 0.211712 0.744223
93 7 0.529492 0.321829 0.72755
94 7 0.910033 0.992646 0.666507
95 7 0.594426 0.011027 0.675566
96 7 0.704405 0.469964 0.628654
97 7 0.926377 0.114913 0.642052
98 7 0.704526 0.0422799 0.699004
99 7 0.64104 0.390213 0.658691
100 7 0.453012 0.547743 0.587635
101 7 0.172919 0.13322 0.527258
102 7 0.0175038 0.116918 0.540342
103 7 0.360212 0.555859 0.55867
104 7 0.359337 0.63515 0.695991
105 7 0.365569 0.48934 0.676878
106 8 0.577676 0.66718 0.44159
107 9 0.697513 0.443405 0.396451
108 9 0.213431 0.904931 0.428711
109 8 0.288129 0.45126 0.408774
110 8 0.490843 0.829638 0.406451
111 8 0.38776 0.464053 0.449052
112 9 0.562579 0.265465 0.389315
113 8 0.341423 0.667204 0.379955
